LIGGGHTS data file

5856 atoms

4 atom types

-0.00972037 0.00972037 xlo xhi
-0.00972037 0.00972037 ylo yhi
-2e-15 0.96 zlo zhi

Atoms

1 2 0.00024 2650 0.00960037 0 0
2 2 0.00024 2650 0.00956502 0.000823044 0.000163934
3 2 0.00024 2650 0.00945925 0.00164003 0.000327869
4 2 0.00024 2650 0.00928382 0.00244494 0.000491803
5 2 0.00024 2650 0.00904003 0.00323184 0.000655738
6 2 0.00024 2650 0.00872968 0.00399495 0.000819672
7 2 0.00024 2650 0.00835506 0.00472864 0.000983607
8 2 0.00024 2650 0.00791891 0.00542752 0.00114754
9 2 0.00024 2650 0.00742445 0.00608643 0.00131148
10 2 0.00024 2650 0.00687532 0.00670052 0.00147541
11 2 0.00024 2650 0.00627557 0.00726527 0.00163934
12 2 0.00024 2650 0.00562961 0.00777653 0.00180328
13 2 0.00024 2650 0.0049422 0.00823053 0.00196721
14 2 0.00024 2650 0.0042184 0.00862393 0.00213115
15 2 0.00024 2650 0.00346353 0.00895382 0.00229508
16 2 0.00024 2650 0.00268316 0.00921779 0.00245902
17 2 0.00024 2650 0.00188304 0.00941388 0.00262295
18 2 0.00024 2650 0.00106905 0.00954066 0.00278689
19 2 0.00024 2650 0.000247189 0.00959718 0.00295082
20 2 0.00024 2650 -0.000576492 0.00958304 0.00311475
21 2 0.00024 2650 -0.00139593 0.00949834 0.00327869
22 2 0.00024 2650 -0.00220509 0.00934369 0.00344262
23 2 0.00024 2650 -0.00299801 0.00912025 0.00360656
24 2 0.00024 2650 -0.00376885 0.00882965 0.00377049
25 2 0.00024 2650 -0.00451195 0.00847404 0.00393443
26 2 0.00024 2650 -0.00522182 0.00805603 0.00409836
27 2 0.00024 2650 -0.00589324 0.0075787 0.0042623
28 2 0.00024 2650 -0.00652127 0.00704557 0.00442623
29 2 0.00024 2650 -0.00710128 0.00646056 0.00459016
30 2 0.00024 2650 -0.00762901 0.00582797 0.0047541
31 2 0.00024 2650 -0.00810055 0.00515248 0.00491803
32 2 0.00024 2650 -0.00851245 0.00443905 0.00508197
33 2 0.00024 2650 -0.00886168 0.00369293 0.0052459
34 2 0.00024 2650 -0.00914565 0.00291961 0.00540984
35 2 0.00024 2650 -0.00936228 0.0021248 0.00557377
36 2 0.00024 2650 -0.00950997 0.00131435 0.0057377
37 2 0.00024 2650 -0.00958764 0.000494215 0.00590164
38 2 0.00024 2650 -0.00959471 -0.000329557 0.00606557
39 2 0.00024 2650 -0.00953113 -0.0011509 0.00622951
40 2 0.00024 2650 -0.00939737 -0.00196377 0.00639344
41 2 0.00024 2650 -0.00919442 -0.00276219 0.00655738
42 2 0.00024 2650 -0.00892376 -0.00354026 0.00672131
43 2 0.00024 2650 -0.0085874 -0.00429226 0.00688525
44 2 0.00024 2650 -0.00818781 -0.00501266 0.00704918
45 2 0.00024 2650 -0.00772793 -0.00569615 0.00721311
46 2 0.00024 2650 -0.00721114 -0.0063377 0.00737705
47 2 0.00024 2650 -0.00664126 -0.00693258 0.00754098
48 2 0.00024 2650 -0.00602247 -0.00747642 0.00770492
49 2 0.00024 2650 -0.00535934 -0.0079652 0.00786885
50 2 0.00024 2650 -0.00465675 -0.00839534 0.00803279
51 2 0.00024 2650 -0.00391987 -0.00876365 0.00819672
52 2 0.00024 2650 -0.00315413 -0.00906744 0.00836066
53 2 0.00024 2650 -0.00236516 -0.00930446 0.00852459
54 2 0.00024 2650 -0.00155877 -0.00947297 0.00868852
55 2 0.00024 2650 -0.000740913 -0.00957173 0.00885246
56 2 0.00024 2650 8.24046e-05 -0.00960001 0.00901639
57 2 0.00024 2650 0.000905115 -0.0095576 0.00918033
58 2 0.00024 2650 0.00172116 -0.00944482 0.00934426
59 2 0.00024 2650 0.00252453 -0.00926249 0.0095082
60 2 0.00024 2650 0.00330932 -0.00901196 0.00967213
61 2 0.00024 2650 0.00406973 -0.00869507 0.00983607
62 2 0.00024 2650 0.00480018 -0.00831416 0.01
63 2 0.00024 2650 0.00549529 -0.00787203 0.0101639
64 2 0.00024 2650 0.00614993 -0.00737193 0.0103279
65 2 0.00024 2650 0.00675929 -0.00681756 0.0104918
66 2 0.00024 2650 0.00731887 -0.00621298 0.0106557
67 2 0.00024 2650 0.00782457 -0.00556265 0.0108197
68 2 0.00024 2650 0.00827265 -0.00487137 0.0109836
69 2 0.00024 2650 0.00865982 -0.00414422 0.0111475
70 2 0.00024 2650 0.00898322 -0.00338655 0.0113115
71 2 0.00024 2650 0.00924048 -0.00260394 0.0114754
72 2 0.00024 2650 0.0094297 -0.00180217 0.0116393
73 2 0.00024 2650 0.00954948 -0.000987119 0.0118033
74 2 0.00024 2650 0.00959895 -0.000164803 0.0119672
75 2 0.00024 2650 0.00957774 0.000658727 0.0121311
76 2 0.00024 2650 0.009486 0.00147741 0.0122951
77 2 0.00024 2650 0.00932442 0.00228521 0.012459
78 2 0.00024 2650 0.00909418 0.00307618 0.012623
79 2 0.00024 2650 0.00879698 0.0038445 0.0127869
80 2 0.00024 2650 0.008435 0.00458452 0.0129508
81 2 0.00024 2650 0.00801091 0.00529078 0.0131148
82 2 0.00024 2650 0.00752784 0.00595808 0.0132787
83 2 0.00024 2650 0.00698933 0.00658151 0.0134426
84 2 0.00024 2650 0.00639936 0.00715648 0.0136066
85 2 0.00024 2650 0.00576228 0.00767875 0.0137705
86 2 0.00024 2650 0.00508276 0.00814448 0.0139344
87 2 0.00024 2650 0.00436582 0.00855024 0.0140984
88 2 0.00024 2650 0.00361673 0.00889305 0.0142623
89 2 0.00024 2650 0.002841 0.00917037 0.0144262
90 2 0.00024 2650 0.00204436 0.00938017 0.0145902
91 2 0.00024 2650 0.00123267 0.0095209 0.0147541
92 2 0.00024 2650 0.000411901 0.00959152 0.014918
93 2 0.00024 2650 -0.000411901 0.00959152 0.015082
94 2 0.00024 2650 -0.00123267 0.0095209 0.0152459
95 2 0.00024 2650 -0.00204436 0.00938017 0.0154098
96 2 0.00024 2650 -0.002841 0.00917037 0.0155738
97 2 0.00024 2650 -0.00361673 0.00889305 0.0157377
98 2 0.00024 2650 -0.00436582 0.00855024 0.0159016
99 2 0.00024 2650 -0.00508276 0.00814448 0.0160656
100 2 0.00024 2650 -0.00576228 0.00767875 0.0162295
101 2 0.00024 2650 -0.00639936 0.00715648 0.0163934
102 2 0.00024 2650 -0.00698933 0.00658151 0.0165574
103 2 0.00024 2650 -0.00752784 0.00595808 0.0167213
104 2 0.00024 2650 -0.00801091 0.00529078 0.0168852
105 2 0.00024 2650 -0.008435 0.00458452 0.0170492
106 2 0.00024 2650 -0.00879698 0.0038445 0.0172131
107 2 0.00024 2650 -0.00909418 0.00307618 0.017377
108 2 0.00024 2650 -0.00932442 0.00228521 0.017541
109 2 0.00024 2650 -0.009486 0.00147741 0.0177049
110 2 0.00024 2650 -0.00957774 0.000658727 0.0178689
111 2 0.00024 2650 -0.00959895 -0.000164803 0.0180328
112 2 0.00024 2650 -0.00954948 -0.000987119 0.0181967
113 2 0.00024 2650 -0.0094297 -0.00180217 0.0183607
114 2 0.00024 2650 -0.00924048 -0.00260394 0.0185246
115 2 0.00024 2650 -0.00898322 -0.00338655 0.0186885
116 2 0.00024 2650 -0.00865982 -0.00414422 0.0188525
117 2 0.00024 2650 -0.00827265 -0.00487137 0.0190164
118 2 0.00024 2650 -0.00782457 -0.00556265 0.0191803
119 2 0.00024 2650 -0.00731887 -0.00621298 0.0193443
120 2 0.00024 2650 -0.00675929 -0.00681756 0.0195082
121 2 0.00024 2650 -0.00614993 -0.00737193 0.0196721
122 2 0.00024 2650 -0.00549529 -0.00787203 0.0198361
123 2 0.00024 2650 -0.00480018 -0.00831416 0.02
124 2 0.00024 2650 -0.00406973 -0.00869507 0.0201639
125 2 0.00024 2650 -0.00330932 -0.00901196 0.0203279
126 2 0.00024 2650 -0.00252453 -0.00926249 0.0204918
127 2 0.00024 2650 -0.00172116 -0.00944482 0.0206557
128 2 0.00024 2650 -0.000905115 -0.0095576 0.0208197
129 2 0.00024 2650 -8.24046e-05 -0.00960001 0.0209836
130 2 0.00024 2650 0.000740913 -0.00957173 0.0211475
131 2 0.00024 2650 0.00155877 -0.00947297 0.0213115
132 2 0.00024 2650 0.00236516 -0.00930446 0.0214754
133 2 0.00024 2650 0.00315413 -0.00906744 0.0216393
134 2 0.00024 2650 0.00391987 -0.00876365 0.0218033
135 2 0.00024 2650 0.00465675 -0.00839534 0.0219672
136 2 0.00024 2650 0.00535934 -0.0079652 0.0221311
137 2 0.00024 2650 0.00602247 -0.00747642 0.0222951
138 2 0.00024 2650 0.00664126 -0.00693258 0.022459
139 2 0.00024 2650 0.00721114 -0.0063377 0.022623
140 2 0.00024 2650 0.00772793 -0.00569615 0.0227869
141 2 0.00024 2650 0.00818781 -0.00501266 0.0229508
142 2 0.00024 2650 0.0085874 -0.00429226 0.0231148
143 2 0.00024 2650 0.00892376 -0.00354026 0.0232787
144 2 0.00024 2650 0.00919442 -0.00276219 0.0234426
145 2 0.00024 2650 0.00939737 -0.00196377 0.0236066
146 2 0.00024 2650 0.00953113 -0.0011509 0.0237705
147 2 0.00024 2650 0.00959471 -0.000329557 0.0239344
148 2 0.00024 2650 0.00958764 0.000494215 0.0240984
149 2 0.00024 2650 0.00950997 0.00131435 0.0242623
150 2 0.00024 2650 0.00936228 0.0021248 0.0244262
151 2 0.00024 2650 0.00914565 0.00291961 0.0245902
152 2 0.00024 2650 0.00886168 0.00369293 0.0247541
153 2 0.00024 2650 0.00851245 0.00443905 0.024918
154 2 0.00024 2650 0.00810055 0.00515248 0.025082
155 2 0.00024 2650 0.00762901 0.00582797 0.0252459
156 2 0.00024 2650 0.00710128 0.00646056 0.0254098
157 2 0.00024 2650 0.00652127 0.00704557 0.0255738
158 2 0.00024 2650 0.00589324 0.0075787 0.0257377
159 2 0.00024 2650 0.00522182 0.00805603 0.0259016
160 2 0.00024 2650 0.00451195 0.00847404 0.0260656
161 2 0.00024 2650 0.00376885 0.00882965 0.0262295
162 2 0.00024 2650 0.00299801 0.00912025 0.0263934
163 2 0.00024 2650 0.00220509 0.00934369 0.0265574
164 2 0.00024 2650 0.00139593 0.00949834 0.0267213
165 2 0.00024 2650 0.000576492 0.00958304 0.0268852
166 2 0.00024 2650 -0.000247189 0.00959718 0.0270492
167 2 0.00024 2650 -0.00106905 0.00954066 0.0272131
168 2 0.00024 2650 -0.00188304 0.00941388 0.027377
169 2 0.00024 2650 -0.00268316 0.00921779 0.027541
170 2 0.00024 2650 -0.00346353 0.00895382 0.0277049
171 2 0.00024 2650 -0.0042184 0.00862393 0.0278689
172 2 0.00024 2650 -0.0049422 0.00823053 0.0280328
173 2 0.00024 2650 -0.00562961 0.00777653 0.0281967
174 2 0.00024 2650 -0.00627557 0.00726527 0.0283607
175 2 0.00024 2650 -0.00687532 0.00670052 0.0285246
176 2 0.00024 2650 -0.00742445 0.00608643 0.0286885
177 2 0.00024 2650 -0.00791891 0.00542752 0.0288525
178 2 0.00024 2650 -0.00835506 0.00472864 0.0290164
179 2 0.00024 2650 -0.00872968 0.00399495 0.0291803
180 2 0.00024 2650 -0.00904003 0.00323184 0.0293443
181 2 0.00024 2650 -0.00928382 0.00244494 0.0295082
182 2 0.00024 2650 -0.00945925 0.00164003 0.0296721
183 2 0.00024 2650 -0.00956502 0.000823044 0.0298361
184 2 0.00024 2650 -0.00960037 -9.91936e-15 0.03
185 2 0.00024 2650 -0.00956502 -0.000823044 0.0301639
186 2 0.00024 2650 -0.00945925 -0.00164003 0.0303279
187 2 0.00024 2650 -0.00928382 -0.00244494 0.0304918
188 2 0.00024 2650 -0.00904003 -0.00323184 0.0306557
189 2 0.00024 2650 -0.00872968 -0.00399495 0.0308197
190 2 0.00024 2650 -0.00835506 -0.00472864 0.0309836
191 2 0.00024 2650 -0.00791891 -0.00542752 0.0311475
192 2 0.00024 2650 -0.00742445 -0.00608643 0.0313115
193 2 0.00024 2650 -0.00687532 -0.00670052 0.0314754
194 2 0.00024 2650 -0.00627557 -0.00726527 0.0316393
195 2 0.00024 2650 -0.00562961 -0.00777653 0.0318033
196 2 0.00024 2650 -0.0049422 -0.00823053 0.0319672
197 2 0.00024 2650 -0.0042184 -0.00862393 0.0321311
198 2 0.00024 2650 -0.00346353 -0.00895382 0.0322951
199 2 0.00024 2650 -0.00268316 -0.00921779 0.032459
200 2 0.00024 2650 -0.00188304 -0.00941388 0.032623
201 2 0.00024 2650 -0.00106905 -0.00954066 0.0327869
202 2 0.00024 2650 -0.000247189 -0.00959718 0.0329508
203 2 0.00024 2650 0.000576492 -0.00958304 0.0331148
204 2 0.00024 2650 0.00139593 -0.00949834 0.0332787
205 2 0.00024 2650 0.00220509 -0.00934369 0.0334426
206 2 0.00024 2650 0.00299801 -0.00912025 0.0336066
207 2 0.00024 2650 0.00376885 -0.00882965 0.0337705
208 2 0.00024 2650 0.00451195 -0.00847404 0.0339344
209 2 0.00024 2650 0.00522182 -0.00805603 0.0340984
210 2 0.00024 2650 0.00589324 -0.0075787 0.0342623
211 2 0.00024 2650 0.00652127 -0.00704557 0.0344262
212 2 0.00024 2650 0.00710128 -0.00646056 0.0345902
213 2 0.00024 2650 0.00762901 -0.00582797 0.0347541
214 2 0.00024 2650 0.00810055 -0.00515248 0.034918
215 2 0.00024 2650 0.00851245 -0.00443905 0.035082
216 2 0.00024 2650 0.00886168 -0.00369293 0.0352459
217 2 0.00024 2650 0.00914565 -0.00291961 0.0354098
218 2 0.00024 2650 0.00936228 -0.0021248 0.0355738
219 2 0.00024 2650 0.00950997 -0.00131435 0.0357377
220 2 0.00024 2650 0.00958764 -0.000494215 0.0359016
221 2 0.00024 2650 0.00959471 0.000329557 0.0360656
222 2 0.00024 2650 0.00953113 0.0011509 0.0362295
223 2 0.00024 2650 0.00939737 0.00196377 0.0363934
224 2 0.00024 2650 0.00919442 0.00276219 0.0365574
225 2 0.00024 2650 0.00892376 0.00354026 0.0367213
226 2 0.00024 2650 0.0085874 0.00429226 0.0368852
227 2 0.00024 2650 0.00818781 0.00501266 0.0370492
228 2 0.00024 2650 0.00772793 0.00569615 0.0372131
229 2 0.00024 2650 0.00721114 0.0063377 0.037377
230 2 0.00024 2650 0.00664126 0.00693258 0.037541
231 2 0.00024 2650 0.00602247 0.00747642 0.0377049
232 2 0.00024 2650 0.00535934 0.0079652 0.0378689
233 2 0.00024 2650 0.00465675 0.00839534 0.0380328
234 2 0.00024 2650 0.00391987 0.00876365 0.0381967
235 2 0.00024 2650 0.00315413 0.00906744 0.0383607
236 2 0.00024 2650 0.00236516 0.00930446 0.0385246
237 2 0.00024 2650 0.00155877 0.00947297 0.0386885
238 2 0.00024 2650 0.000740913 0.00957173 0.0388525
239 2 0.00024 2650 -8.24046e-05 0.00960001 0.0390164
240 2 0.00024 2650 -0.000905115 0.0095576 0.0391803
241 2 0.00024 2650 -0.00172116 0.00944482 0.0393443
242 2 0.00024 2650 -0.00252453 0.00926249 0.0395082
243 2 0.00024 2650 -0.00330932 0.00901196 0.0396721
244 2 0.00024 2650 -0.00406973 0.00869507 0.0398361
245 2 0.00024 2650 -0.00480018 0.00831416 0.04
246 2 0.00024 2650 -0.00549529 0.00787203 0.0401639
247 2 0.00024 2650 -0.00614993 0.00737193 0.0403279
248 2 0.00024 2650 -0.00675929 0.00681756 0.0404918
249 2 0.00024 2650 -0.00731887 0.00621298 0.0406557
250 2 0.00024 2650 -0.00782457 0.00556265 0.0408197
251 2 0.00024 2650 -0.00827265 0.00487137 0.0409836
252 2 0.00024 2650 -0.00865982 0.00414422 0.0411475
253 2 0.00024 2650 -0.00898322 0.00338655 0.0413115
254 2 0.00024 2650 -0.00924048 0.00260394 0.0414754
255 2 0.00024 2650 -0.0094297 0.00180217 0.0416393
256 2 0.00024 2650 -0.00954948 0.000987119 0.0418033
257 2 0.00024 2650 -0.00959895 0.000164803 0.0419672
258 2 0.00024 2650 -0.00957774 -0.000658727 0.0421311
259 2 0.00024 2650 -0.009486 -0.00147741 0.0422951
260 2 0.00024 2650 -0.00932442 -0.00228521 0.042459
261 2 0.00024 2650 -0.00909418 -0.00307618 0.042623
262 2 0.00024 2650 -0.00879698 -0.0038445 0.0427869
263 2 0.00024 2650 -0.008435 -0.00458452 0.0429508
264 2 0.00024 2650 -0.00801091 -0.00529078 0.0431148
265 2 0.00024 2650 -0.00752784 -0.00595808 0.0432787
266 2 0.00024 2650 -0.00698933 -0.00658151 0.0434426
267 2 0.00024 2650 -0.00639936 -0.00715648 0.0436066
268 2 0.00024 2650 -0.00576228 -0.00767875 0.0437705
269 2 0.00024 2650 -0.00508276 -0.00814448 0.0439344
270 2 0.00024 2650 -0.00436582 -0.00855024 0.0440984
271 2 0.00024 2650 -0.00361673 -0.00889305 0.0442623
272 2 0.00024 2650 -0.002841 -0.00917037 0.0444262
273 2 0.00024 2650 -0.00204436 -0.00938017 0.0445902
274 2 0.00024 2650 -0.00123267 -0.0095209 0.0447541
275 2 0.00024 2650 -0.000411901 -0.00959152 0.044918
276 2 0.00024 2650 0.000411901 -0.00959152 0.045082
277 2 0.00024 2650 0.00123267 -0.0095209 0.0452459
278 2 0.00024 2650 0.00204436 -0.00938017 0.0454098
279 2 0.00024 2650 0.002841 -0.00917037 0.0455738
280 2 0.00024 2650 0.00361673 -0.00889305 0.0457377
281 2 0.00024 2650 0.00436582 -0.00855024 0.0459016
282 2 0.00024 2650 0.00508276 -0.00814448 0.0460656
283 2 0.00024 2650 0.00576228 -0.00767875 0.0462295
284 2 0.00024 2650 0.00639936 -0.00715648 0.0463934
285 2 0.00024 2650 0.00698933 -0.00658151 0.0465574
286 2 0.00024 2650 0.00752784 -0.00595808 0.0467213
287 2 0.00024 2650 0.00801091 -0.00529078 0.0468852
288 2 0.00024 2650 0.008435 -0.00458452 0.0470492
289 2 0.00024 2650 0.00879698 -0.0038445 0.0472131
290 2 0.00024 2650 0.00909418 -0.00307618 0.047377
291 2 0.00024 2650 0.00932442 -0.00228521 0.047541
292 2 0.00024 2650 0.009486 -0.00147741 0.0477049
293 2 0.00024 2650 0.00957774 -0.000658727 0.0478689
294 2 0.00024 2650 0.00959895 0.000164803 0.0480328
295 2 0.00024 2650 0.00954948 0.000987119 0.0481967
296 2 0.00024 2650 0.0094297 0.00180217 0.0483607
297 2 0.00024 2650 0.00924048 0.00260394 0.0485246
298 2 0.00024 2650 0.00898322 0.00338655 0.0486885
299 2 0.00024 2650 0.00865982 0.00414422 0.0488525
300 2 0.00024 2650 0.00827265 0.00487137 0.0490164
301 2 0.00024 2650 0.00782457 0.00556265 0.0491803
302 2 0.00024 2650 0.00731887 0.00621298 0.0493443
303 2 0.00024 2650 0.00675929 0.00681756 0.0495082
304 2 0.00024 2650 0.00614993 0.00737193 0.0496721
305 2 0.00024 2650 0.00549529 0.00787203 0.0498361
306 2 0.00024 2650 0.00480018 0.00831416 0.05
307 2 0.00024 2650 0.00406973 0.00869507 0.0501639
308 2 0.00024 2650 0.00330932 0.00901196 0.0503279
309 2 0.00024 2650 0.00252453 0.00926249 0.0504918
310 2 0.00024 2650 0.00172116 0.00944482 0.0506557
311 2 0.00024 2650 0.000905115 0.0095576 0.0508197
312 2 0.00024 2650 8.24046e-05 0.00960001 0.0509836
313 2 0.00024 2650 -0.000740913 0.00957173 0.0511475
314 2 0.00024 2650 -0.00155877 0.00947297 0.0513115
315 2 0.00024 2650 -0.00236516 0.00930446 0.0514754
316 2 0.00024 2650 -0.00315413 0.00906744 0.0516393
317 2 0.00024 2650 -0.00391987 0.00876365 0.0518033
318 2 0.00024 2650 -0.00465675 0.00839534 0.0519672
319 2 0.00024 2650 -0.00535934 0.0079652 0.0521311
320 2 0.00024 2650 -0.00602247 0.00747642 0.0522951
321 2 0.00024 2650 -0.00664126 0.00693258 0.052459
322 2 0.00024 2650 -0.00721114 0.0063377 0.052623
323 2 0.00024 2650 -0.00772793 0.00569615 0.0527869
324 2 0.00024 2650 -0.00818781 0.00501266 0.0529508
325 2 0.00024 2650 -0.0085874 0.00429226 0.0531148
326 2 0.00024 2650 -0.00892376 0.00354026 0.0532787
327 2 0.00024 2650 -0.00919442 0.00276219 0.0534426
328 2 0.00024 2650 -0.00939737 0.00196377 0.0536066
329 2 0.00024 2650 -0.00953113 0.0011509 0.0537705
330 2 0.00024 2650 -0.00959471 0.000329557 0.0539344
331 2 0.00024 2650 -0.00958764 -0.000494215 0.0540984
332 2 0.00024 2650 -0.00950997 -0.00131435 0.0542623
333 2 0.00024 2650 -0.00936228 -0.0021248 0.0544262
334 2 0.00024 2650 -0.00914565 -0.00291961 0.0545902
335 2 0.00024 2650 -0.00886168 -0.00369293 0.0547541
336 2 0.00024 2650 -0.00851245 -0.00443905 0.054918
337 2 0.00024 2650 -0.00810055 -0.00515248 0.055082
338 2 0.00024 2650 -0.00762901 -0.00582797 0.0552459
339 2 0.00024 2650 -0.00710128 -0.00646056 0.0554098
340 2 0.00024 2650 -0.00652127 -0.00704557 0.0555738
341 2 0.00024 2650 -0.00589324 -0.0075787 0.0557377
342 2 0.00024 2650 -0.00522182 -0.00805603 0.0559016
343 2 0.00024 2650 -0.00451195 -0.00847404 0.0560656
344 2 0.00024 2650 -0.00376885 -0.00882965 0.0562295
345 2 0.00024 2650 -0.00299801 -0.00912025 0.0563934
346 2 0.00024 2650 -0.00220509 -0.00934369 0.0565574
347 2 0.00024 2650 -0.00139593 -0.00949834 0.0567213
348 2 0.00024 2650 -0.000576492 -0.00958304 0.0568852
349 2 0.00024 2650 0.000247189 -0.00959718 0.0570492
350 2 0.00024 2650 0.00106905 -0.00954066 0.0572131
351 2 0.00024 2650 0.00188304 -0.00941388 0.057377
352 2 0.00024 2650 0.00268316 -0.00921779 0.057541
353 2 0.00024 2650 0.00346353 -0.00895382 0.0577049
354 2 0.00024 2650 0.0042184 -0.00862393 0.0578689
355 2 0.00024 2650 0.0049422 -0.00823053 0.0580328
356 2 0.00024 2650 0.00562961 -0.00777653 0.0581967
357 2 0.00024 2650 0.00627557 -0.00726527 0.0583607
358 2 0.00024 2650 0.00687532 -0.00670052 0.0585246
359 2 0.00024 2650 0.00742445 -0.00608643 0.0586885
360 2 0.00024 2650 0.00791891 -0.00542752 0.0588525
361 2 0.00024 2650 0.00835506 -0.00472864 0.0590164
362 2 0.00024 2650 0.00872968 -0.00399495 0.0591803
363 2 0.00024 2650 0.00904003 -0.00323184 0.0593443
364 2 0.00024 2650 0.00928382 -0.00244494 0.0595082
365 2 0.00024 2650 0.00945925 -0.00164003 0.0596721
366 2 0.00024 2650 0.00956502 -0.000823044 0.0598361
367 2 0.00024 2650 0.00960037 1.98387e-14 0.06
368 2 0.00024 2650 0.00956502 0.000823044 0.0601639
369 2 0.00024 2650 0.00945925 0.00164003 0.0603279
370 2 0.00024 2650 0.00928382 0.00244494 0.0604918
371 2 0.00024 2650 0.00904003 0.00323184 0.0606557
372 2 0.00024 2650 0.00872968 0.00399495 0.0608197
373 2 0.00024 2650 0.00835506 0.00472864 0.0609836
374 2 0.00024 2650 0.00791891 0.00542752 0.0611475
375 2 0.00024 2650 0.00742445 0.00608643 0.0613115
376 2 0.00024 2650 0.00687532 0.00670052 0.0614754
377 2 0.00024 2650 0.00627557 0.00726527 0.0616393
378 2 0.00024 2650 0.00562961 0.00777653 0.0618033
379 2 0.00024 2650 0.0049422 0.00823053 0.0619672
380 2 0.00024 2650 0.0042184 0.00862393 0.0621311
381 2 0.00024 2650 0.00346353 0.00895382 0.0622951
382 2 0.00024 2650 0.00268316 0.00921779 0.062459
383 2 0.00024 2650 0.00188304 0.00941388 0.062623
384 2 0.00024 2650 0.00106905 0.00954066 0.0627869
385 2 0.00024 2650 0.000247189 0.00959718 0.0629508
386 2 0.00024 2650 -0.000576492 0.00958304 0.0631148
387 2 0.00024 2650 -0.00139593 0.00949834 0.0632787
388 2 0.00024 2650 -0.00220509 0.00934369 0.0634426
389 2 0.00024 2650 -0.00299801 0.00912025 0.0636066
390 2 0.00024 2650 -0.00376885 0.00882965 0.0637705
391 2 0.00024 2650 -0.00451195 0.00847404 0.0639344
392 2 0.00024 2650 -0.00522182 0.00805603 0.0640984
393 2 0.00024 2650 -0.00589324 0.0075787 0.0642623
394 2 0.00024 2650 -0.00652127 0.00704557 0.0644262
395 2 0.00024 2650 -0.00710128 0.00646056 0.0645902
396 2 0.00024 2650 -0.00762901 0.00582797 0.0647541
397 2 0.00024 2650 -0.00810055 0.00515248 0.064918
398 2 0.00024 2650 -0.00851245 0.00443905 0.065082
399 2 0.00024 2650 -0.00886168 0.00369293 0.0652459
400 2 0.00024 2650 -0.00914565 0.00291961 0.0654098
401 2 0.00024 2650 -0.00936228 0.0021248 0.0655738
402 2 0.00024 2650 -0.00950997 0.00131435 0.0657377
403 2 0.00024 2650 -0.00958764 0.000494215 0.0659016
404 2 0.00024 2650 -0.00959471 -0.000329557 0.0660656
405 2 0.00024 2650 -0.00953113 -0.0011509 0.0662295
406 2 0.00024 2650 -0.00939737 -0.00196377 0.0663934
407 2 0.00024 2650 -0.00919442 -0.00276219 0.0665574
408 2 0.00024 2650 -0.00892376 -0.00354026 0.0667213
409 2 0.00024 2650 -0.0085874 -0.00429226 0.0668852
410 2 0.00024 2650 -0.00818781 -0.00501266 0.0670492
411 2 0.00024 2650 -0.00772793 -0.00569615 0.0672131
412 2 0.00024 2650 -0.00721114 -0.0063377 0.067377
413 2 0.00024 2650 -0.00664126 -0.00693258 0.067541
414 2 0.00024 2650 -0.00602247 -0.00747642 0.0677049
415 2 0.00024 2650 -0.00535934 -0.0079652 0.0678689
416 2 0.00024 2650 -0.00465675 -0.00839534 0.0680328
417 2 0.00024 2650 -0.00391987 -0.00876365 0.0681967
418 2 0.00024 2650 -0.00315413 -0.00906744 0.0683607
419 2 0.00024 2650 -0.00236516 -0.00930446 0.0685246
420 2 0.00024 2650 -0.00155877 -0.00947297 0.0686885
421 2 0.00024 2650 -0.000740913 -0.00957173 0.0688525
422 2 0.00024 2650 8.24046e-05 -0.00960001 0.0690164
423 2 0.00024 2650 0.000905115 -0.0095576 0.0691803
424 2 0.00024 2650 0.00172116 -0.00944482 0.0693443
425 2 0.00024 2650 0.00252453 -0.00926249 0.0695082
426 2 0.00024 2650 0.00330932 -0.00901196 0.0696721
427 2 0.00024 2650 0.00406973 -0.00869507 0.0698361
428 2 0.00024 2650 0.00480018 -0.00831416 0.07
429 2 0.00024 2650 0.00549529 -0.00787203 0.0701639
430 2 0.00024 2650 0.00614993 -0.00737193 0.0703279
431 2 0.00024 2650 0.00675929 -0.00681756 0.0704918
432 2 0.00024 2650 0.00731887 -0.00621298 0.0706557
433 2 0.00024 2650 0.00782457 -0.00556265 0.0708197
434 2 0.00024 2650 0.00827265 -0.00487137 0.0709836
435 2 0.00024 2650 0.00865982 -0.00414422 0.0711475
436 2 0.00024 2650 0.00898322 -0.00338655 0.0713115
437 2 0.00024 2650 0.00924048 -0.00260394 0.0714754
438 2 0.00024 2650 0.0094297 -0.00180217 0.0716393
439 2 0.00024 2650 0.00954948 -0.000987119 0.0718033
440 2 0.00024 2650 0.00959895 -0.000164803 0.0719672
441 2 0.00024 2650 0.00957774 0.000658727 0.0721311
442 2 0.00024 2650 0.009486 0.00147741 0.0722951
443 2 0.00024 2650 0.00932442 0.00228521 0.072459
444 2 0.00024 2650 0.00909418 0.00307618 0.072623
445 2 0.00024 2650 0.00879698 0.0038445 0.0727869
446 2 0.00024 2650 0.008435 0.00458452 0.0729508
447 2 0.00024 2650 0.00801091 0.00529078 0.0731148
448 2 0.00024 2650 0.00752784 0.00595808 0.0732787
449 2 0.00024 2650 0.00698933 0.00658151 0.0734426
450 2 0.00024 2650 0.00639936 0.00715648 0.0736066
451 2 0.00024 2650 0.00576228 0.00767875 0.0737705
452 2 0.00024 2650 0.00508276 0.00814448 0.0739344
453 2 0.00024 2650 0.00436582 0.00855024 0.0740984
454 2 0.00024 2650 0.00361673 0.00889305 0.0742623
455 2 0.00024 2650 0.002841 0.00917037 0.0744262
456 2 0.00024 2650 0.00204436 0.00938017 0.0745902
457 2 0.00024 2650 0.00123267 0.0095209 0.0747541
458 2 0.00024 2650 0.000411901 0.00959152 0.074918
459 2 0.00024 2650 -0.000411901 0.00959152 0.075082
460 2 0.00024 2650 -0.00123267 0.0095209 0.0752459
461 2 0.00024 2650 -0.00204436 0.00938017 0.0754098
462 2 0.00024 2650 -0.002841 0.00917037 0.0755738
463 2 0.00024 2650 -0.00361673 0.00889305 0.0757377
464 2 0.00024 2650 -0.00436582 0.00855024 0.0759016
465 2 0.00024 2650 -0.00508276 0.00814448 0.0760656
466 2 0.00024 2650 -0.00576228 0.00767875 0.0762295
467 2 0.00024 2650 -0.00639936 0.00715648 0.0763934
468 2 0.00024 2650 -0.00698933 0.00658151 0.0765574
469 2 0.00024 2650 -0.00752784 0.00595808 0.0767213
470 2 0.00024 2650 -0.00801091 0.00529078 0.0768852
471 2 0.00024 2650 -0.008435 0.00458452 0.0770492
472 2 0.00024 2650 -0.00879698 0.0038445 0.0772131
473 2 0.00024 2650 -0.00909418 0.00307618 0.077377
474 2 0.00024 2650 -0.00932442 0.00228521 0.077541
475 2 0.00024 2650 -0.009486 0.00147741 0.0777049
476 2 0.00024 2650 -0.00957774 0.000658727 0.0778689
477 2 0.00024 2650 -0.00959895 -0.000164803 0.0780328
478 2 0.00024 2650 -0.00954948 -0.000987119 0.0781967
479 2 0.00024 2650 -0.0094297 -0.00180217 0.0783607
480 2 0.00024 2650 -0.00924048 -0.00260394 0.0785246
481 2 0.00024 2650 -0.00898322 -0.00338655 0.0786885
482 2 0.00024 2650 -0.00865982 -0.00414422 0.0788525
483 2 0.00024 2650 -0.00827265 -0.00487137 0.0790164
484 2 0.00024 2650 -0.00782457 -0.00556265 0.0791803
485 2 0.00024 2650 -0.00731887 -0.00621298 0.0793443
486 2 0.00024 2650 -0.00675929 -0.00681756 0.0795082
487 2 0.00024 2650 -0.00614993 -0.00737193 0.0796721
488 2 0.00024 2650 -0.00549529 -0.00787203 0.0798361
489 2 0.00024 2650 -0.00480018 -0.00831416 0.08
490 2 0.00024 2650 -0.00406973 -0.00869507 0.0801639
491 2 0.00024 2650 -0.00330932 -0.00901196 0.0803279
492 2 0.00024 2650 -0.00252453 -0.00926249 0.0804918
493 2 0.00024 2650 -0.00172116 -0.00944482 0.0806557
494 2 0.00024 2650 -0.000905115 -0.0095576 0.0808197
495 2 0.00024 2650 -8.24046e-05 -0.00960001 0.0809836
496 2 0.00024 2650 0.000740913 -0.00957173 0.0811475
497 2 0.00024 2650 0.00155877 -0.00947297 0.0813115
498 2 0.00024 2650 0.00236516 -0.00930446 0.0814754
499 2 0.00024 2650 0.00315413 -0.00906744 0.0816393
500 2 0.00024 2650 0.00391987 -0.00876365 0.0818033
501 2 0.00024 2650 0.00465675 -0.00839534 0.0819672
502 2 0.00024 2650 0.00535934 -0.0079652 0.0821311
503 2 0.00024 2650 0.00602247 -0.00747642 0.0822951
504 2 0.00024 2650 0.00664126 -0.00693258 0.082459
505 2 0.00024 2650 0.00721114 -0.0063377 0.082623
506 2 0.00024 2650 0.00772793 -0.00569615 0.0827869
507 2 0.00024 2650 0.00818781 -0.00501266 0.0829508
508 2 0.00024 2650 0.0085874 -0.00429226 0.0831148
509 2 0.00024 2650 0.00892376 -0.00354026 0.0832787
510 2 0.00024 2650 0.00919442 -0.00276219 0.0834426
511 2 0.00024 2650 0.00939737 -0.00196377 0.0836066
512 2 0.00024 2650 0.00953113 -0.0011509 0.0837705
513 2 0.00024 2650 0.00959471 -0.000329557 0.0839344
514 2 0.00024 2650 0.00958764 0.000494215 0.0840984
515 2 0.00024 2650 0.00950997 0.00131435 0.0842623
516 2 0.00024 2650 0.00936228 0.0021248 0.0844262
517 2 0.00024 2650 0.00914565 0.00291961 0.0845902
518 2 0.00024 2650 0.00886168 0.00369293 0.0847541
519 2 0.00024 2650 0.00851245 0.00443905 0.084918
520 2 0.00024 2650 0.00810055 0.00515248 0.085082
521 2 0.00024 2650 0.00762901 0.00582797 0.0852459
522 2 0.00024 2650 0.00710128 0.00646056 0.0854098
523 2 0.00024 2650 0.00652127 0.00704557 0.0855738
524 2 0.00024 2650 0.00589324 0.0075787 0.0857377
525 2 0.00024 2650 0.00522182 0.00805603 0.0859016
526 2 0.00024 2650 0.00451195 0.00847404 0.0860656
527 2 0.00024 2650 0.00376885 0.00882965 0.0862295
528 2 0.00024 2650 0.00299801 0.00912025 0.0863934
529 2 0.00024 2650 0.00220509 0.00934369 0.0865574
530 2 0.00024 2650 0.00139593 0.00949834 0.0867213
531 2 0.00024 2650 0.000576492 0.00958304 0.0868852
532 2 0.00024 2650 -0.000247189 0.00959718 0.0870492
533 2 0.00024 2650 -0.00106905 0.00954066 0.0872131
534 2 0.00024 2650 -0.00188304 0.00941388 0.087377
535 2 0.00024 2650 -0.00268316 0.00921779 0.087541
536 2 0.00024 2650 -0.00346353 0.00895382 0.0877049
537 2 0.00024 2650 -0.0042184 0.00862393 0.0878689
538 2 0.00024 2650 -0.0049422 0.00823053 0.0880328
539 2 0.00024 2650 -0.00562961 0.00777653 0.0881967
540 2 0.00024 2650 -0.00627557 0.00726527 0.0883607
541 2 0.00024 2650 -0.00687532 0.00670052 0.0885246
542 2 0.00024 2650 -0.00742445 0.00608643 0.0886885
543 2 0.00024 2650 -0.00791891 0.00542752 0.0888525
544 2 0.00024 2650 -0.00835506 0.00472864 0.0890164
545 2 0.00024 2650 -0.00872968 0.00399495 0.0891803
546 2 0.00024 2650 -0.00904003 0.00323184 0.0893443
547 2 0.00024 2650 -0.00928382 0.00244494 0.0895082
548 2 0.00024 2650 -0.00945925 0.00164003 0.0896721
549 2 0.00024 2650 -0.00956502 0.000823044 0.0898361
550 2 0.00024 2650 -0.00960037 -2.97581e-14 0.09
551 2 0.00024 2650 -0.00956502 -0.000823044 0.0901639
552 2 0.00024 2650 -0.00945925 -0.00164003 0.0903279
553 2 0.00024 2650 -0.00928382 -0.00244494 0.0904918
554 2 0.00024 2650 -0.00904003 -0.00323184 0.0906557
555 2 0.00024 2650 -0.00872968 -0.00399495 0.0908197
556 2 0.00024 2650 -0.00835506 -0.00472864 0.0909836
557 2 0.00024 2650 -0.00791891 -0.00542752 0.0911475
558 2 0.00024 2650 -0.00742445 -0.00608643 0.0913115
559 2 0.00024 2650 -0.00687532 -0.00670052 0.0914754
560 2 0.00024 2650 -0.00627557 -0.00726527 0.0916393
561 2 0.00024 2650 -0.00562961 -0.00777653 0.0918033
562 2 0.00024 2650 -0.0049422 -0.00823053 0.0919672
563 2 0.00024 2650 -0.0042184 -0.00862393 0.0921311
564 2 0.00024 2650 -0.00346353 -0.00895382 0.0922951
565 2 0.00024 2650 -0.00268316 -0.00921779 0.092459
566 2 0.00024 2650 -0.00188304 -0.00941388 0.092623
567 2 0.00024 2650 -0.00106905 -0.00954066 0.0927869
568 2 0.00024 2650 -0.000247189 -0.00959718 0.0929508
569 2 0.00024 2650 0.000576492 -0.00958304 0.0931148
570 2 0.00024 2650 0.00139593 -0.00949834 0.0932787
571 2 0.00024 2650 0.00220509 -0.00934369 0.0934426
572 2 0.00024 2650 0.00299801 -0.00912025 0.0936066
573 2 0.00024 2650 0.00376885 -0.00882965 0.0937705
574 2 0.00024 2650 0.00451195 -0.00847404 0.0939344
575 2 0.00024 2650 0.00522182 -0.00805603 0.0940984
576 2 0.00024 2650 0.00589324 -0.0075787 0.0942623
577 2 0.00024 2650 0.00652127 -0.00704557 0.0944262